 Gaussian 16, Revision C.01,
 Gaussian 16:  ES64L-G16RevC.01  3-Jul-2019

 ----------------------------------------------------------------------
 # opt=calcfc freq 6-311+g(d,p) scrf=(cpcm,solvent=water) m062x int(gri
 d=ultrafine)
 ----------------------------------------------------------------------

 --------------------
 ZINC000034075380.mol
 --------------------
 Symbolic Z-matrix:
 Charge =  0 Multiplicity = 1

 SCF Done:  E(RM062X) =  -473.922997303     A.U. after   14 cycles
 SCF Done:  E(RM062X) =  -473.949663411     A.U. after   16 cycles
 SCF Done:  E(RM062X) =  -473.937833140     A.U. after   15 cycles
 SCF Done:  E(RM062X) =  -473.975469995     A.U. after   14 cycles
 SCF Done:  E(RM062X) =  -473.975672552     A.U. after   15 cycles
 SCF Done:  E(RM062X) =  -473.979266022     A.U. after   15 cycles
 SCF Done:  E(RM062X) =  -473.948723151     A.U. after   16 cycles
 SCF Done:  E(RM062X) =  -473.984544330     A.U. after   14 cycles
 SCF Done:  E(RM062X) =  -473.986315121     A.U. after   13 cycles
 SCF Done:  E(RM062X) =  -473.988698003     A.U. after   14 cycles
 SCF Done:  E(RM062X) =  -473.993093823     A.U. after   11 cycles
 SCF Done:  E(RM062X) =  -473.993198775     A.U. after   12 cycles
 SCF Done:  E(RM062X) =  -473.993251001     A.U. after   11 cycles
 SCF Done:  E(RM062X) =  -473.993296845     A.U. after   12 cycles
 SCF Done:  E(RM062X) =  -473.993304675     A.U. after    9 cycles
 SCF Done:  E(RM062X) =  -473.993307549     A.U. after   10 cycles
 SCF Done:  E(RM062X) =  -473.993308184     A.U. after    9 cycles
 SCF Done:  E(RM062X) =  -473.993308755     A.U. after    9 cycles
 SCF Done:  E(RM062X) =  -473.993309150     A.U. after    9 cycles
 Optimization completed.
    -- Stationary point found.
 Normal termination of Gaussian 16 at Thu Jun 29 13:13:08 2023.

 ----------------------------------------------------------------------
 #N Geom=AllCheck Guess=TCheck SCRF=Check GenChk RM062X/6-311+G(d,p) Fr
 eq
 ----------------------------------------------------------------------

 Structure from the checkpoint file:  "ZINC000034075380.chk"
 --------------------
 ZINC000034075380.mol
 --------------------
 Charge =  0 Multiplicity = 1

                         Standard orientation:
 ---------------------------------------------------------------------
 Center     Atomic      Atomic             Coordinates (Angstroms)
 Number     Number       Type             X           Y           Z
 ---------------------------------------------------------------------
      1          8           0        3.020752   -0.328199   -0.415377
      2          7           0        1.975714    0.053589    0.028972
      3          8           0        1.711512    1.140333    0.466085
      4          8           0        1.002387   -0.905457    0.025234
      5          6           0       -0.306585   -0.470808    0.474790
      6          6           0       -1.033781    0.324274   -0.593773
      7          6           0       -2.442018    0.661173   -0.136794
      8          8           0       -3.132560   -0.563598    0.085189
      9          1           0       -0.197642    0.082650    1.407478
     10          1           0       -0.803305   -1.418373    0.671405
     11          1           0       -1.080136   -0.265212   -1.513047
     12          1           0       -0.502058    1.253710   -0.806641
     13          1           0       -2.944182    1.254348   -0.906028
     14          1           0       -2.407555    1.252183    0.785357
     15          1           0       -4.017546   -0.366896    0.404288
 ---------------------------------------------------------------------

 SCF Done:  E(RM062X) =  -473.993309150     A.U. after    1 cycles

 The electronic state is 1-A.
 Alpha  occ. eigenvalues --  -19.73029 -19.69818 -19.69380 -19.63118 -15.07762
 Alpha  occ. eigenvalues --  -10.61280 -10.59251 -10.54765  -1.44963  -1.24074
 Alpha  occ. eigenvalues --   -1.22628  -1.15472  -0.91478  -0.83819  -0.73946
 Alpha  occ. eigenvalues --   -0.70732  -0.69312  -0.66915  -0.65210  -0.61353
 Alpha  occ. eigenvalues --   -0.55776  -0.54540  -0.52852  -0.48221  -0.47350
 Alpha  occ. eigenvalues --   -0.45809  -0.43050  -0.42323  -0.41347  -0.41172
 Alpha  occ. eigenvalues --   -0.39955  -0.36011
 Alpha virt. eigenvalues --   -0.03177   0.01732   0.02517   0.03252   0.03815
 Alpha virt. eigenvalues --    0.06045   0.06662   0.07084   0.07979   0.08455
 Alpha virt. eigenvalues --    0.10299   0.11185   0.11784   0.12713   0.14053

 Mulliken charges:
               1
     1  O   -0.046377
     2  N   -0.256700
     3  O   -0.039614
     4  O    0.119665
     5  C   -0.320558
     6  C   -0.255451
     7  C   -0.384522
     8  O   -0.372283
     9  H    0.227625
    10  H    0.228151
    11  H    0.219565
    12  H    0.211642
    13  H    0.188563
    14  H    0.182415
    15  H    0.297879
 Sum of Mulliken charges =  -0.00000

 Dipole moment (field-independent basis, Debye):
    X=             -5.3776    Y=              1.5303    Z=              1.0637  Tot=              5.6914
 Quadrupole moment (field-independent basis, Debye-Ang):
   XX=            -48.7434   YY=            -50.4914   ZZ=            -45.4968
   XY=             -4.8984   XZ=             -0.7063   YZ=             -2.1641

  Exact polarizability:      91.577      -1.385      74.406      -7.282       4.735      62.612
 Approx polarizability:      79.233      -3.084      74.953      -8.287       7.161      59.659

                      1                      2                      3
                      A                      A                      A
 Frequencies --     47.4573                78.4382               107.4171
 Red. masses --      4.7303                 7.5879                 4.9570
 Frc consts  --      0.0063                 0.0275                 0.0337
 IR Inten    --      5.7533                 0.5243                 9.4330

                      4                      5                      6
                      A                      A                      A
 Frequencies --    148.3864               232.5637               283.1125
 Red. masses --      4.3974                 1.3182                 1.6291
 Frc consts  --      0.0570                 0.0420                 0.0769
 IR Inten    --      7.0686               126.5004                72.6188

                      7                      8                      9
                      A                      A                      A
 Frequencies --    323.2606               394.6735               489.7220
 Red. masses --      3.1947                 5.0587                 3.1360
 Frc consts  --      0.1967                 0.4643                 0.4431
 IR Inten    --      6.4759                 7.5995                30.1109

                     10                     11                     12
                      A                      A                      A
 Frequencies --    665.0371               712.2472               781.6874
 Red. masses --      5.1488                 4.0190                 1.4144
 Frc consts  --      1.3417                 1.2012                 0.5092
 IR Inten    --      4.0522                14.9868                 5.0350

                     13                     14                     15
                      A                      A                      A
 Frequencies --    812.6261               905.5261               939.0359
 Red. masses --     13.7835                 1.7929                 6.6758
 Frc consts  --      5.3628                 0.8662                 3.4683
 IR Inten    --     24.9580                 1.7169               258.3668

                     16                     17                     18
                      A                      A                      A
 Frequencies --    960.5769              1044.4281              1087.6323
 Red. masses --      2.2740                 5.1747                 2.4446
 Frc consts  --      1.2362                 3.3258                 1.7038
 IR Inten    --     11.2205               171.9141               162.9976

                     19                     20                     21
                      A                      A                      A
 Frequencies --   1125.6816              1139.4902              1227.2362
 Red. masses --      3.4352                 1.9060                 1.2834
 Frc consts  --      2.5647                 1.4582                 1.1388
 IR Inten    --     61.1825                 6.4944                73.0594

                     22                     23                     24
                      A                      A                      A
 Frequencies --   1262.4590              1308.0470              1336.0268
 Red. masses --      1.1919                 1.2189                 1.0775
 Frc consts  --      1.1192                 1.2288                 1.1332
 IR Inten    --      4.2062                33.3695                23.5877

                     25                     26                     27
                      A                      A                      A
 Frequencies --   1346.3817              1388.5708              1434.0535
 Red. masses --      1.3519                 3.4733                 1.7211
 Frc consts  --      1.4438                 3.9457                 2.0854
 IR Inten    --     56.6185               267.4101                52.1217

                     28                     29                     30
                      A                      A                      A
 Frequencies --   1454.3817              1476.6009              1495.4926
 Red. masses --      1.4584                 1.1259                 1.1279
 Frc consts  --      1.8176                 1.4464                 1.4863
 IR Inten    --      9.9031                 3.3619                52.9917

                     31                     32                     33
                      A                      A                      A
 Frequencies --   1524.3980              1715.0820              3044.4609
 Red. masses --      1.0852                13.6820                 1.0598
 Frc consts  --      1.4858                23.7121                 5.7877
 IR Inten    --      5.2647               963.2814                59.0310

                     34                     35                     36
                      A                      A                      A
 Frequencies --   3080.6503              3095.0688              3120.1758
 Red. masses --      1.0702                 1.0957                 1.0617
 Frc consts  --      5.9842                 6.1839                 6.0899
 IR Inten    --      4.4608                56.1084                15.2108

                     37                     38                     39
                      A                      A                      A
 Frequencies --   3137.3583              3188.8128              3896.1491
 Red. masses --      1.1040                 1.1069                 1.0670
 Frc consts  --      6.4022                 6.6318                 9.5432
 IR Inten    --     12.9933                 3.3333               101.0154

 - Thermochemistry -
 -------------------
 Temperature   298.150 Kelvin.  Pressure   1.00000 Atm.
 Atom     1 has atomic number  8 and mass  15.99491

 Molecular mass:   121.03751 amu.
 Principal axes and moments of inertia in atomic units:
                           1         2         3
     Eigenvalues --   276.419261993.845562124.01220
           X            0.99995  -0.00948   0.00112
           Y            0.00953   0.99882  -0.04760
           Z           -0.00067   0.04761   0.99887
 This molecule is an asymmetric top.
 Rotational symmetry number  1.
 Rotational temperatures (Kelvin)      0.31334     0.04344     0.04078
 Rotational constants (GHZ):           6.52900     0.90516     0.84968
 Zero-point vibrational energy     309895.0 (Joules/Mol)
                                   74.06669 (Kcal/Mol)
 Warning -- explicit consideration of   9 degrees of freedom as
           vibrations may cause significant error
 Vibrational temperatures:     68.28   112.86   154.55   213.50   334.61
          (Kelvin)            407.34   465.10   567.85   704.60   956.84
                             1024.76  1124.67  1169.19  1302.85  1351.06
                             1382.06  1502.70  1564.86  1619.60  1639.47
                             1765.72  1816.40  1881.99  1922.24  1937.14
                             1997.84  2063.28  2092.53  2124.50  2151.68
                             2193.27  2467.62  4380.30  4432.37  4453.11
                             4489.24  4513.96  4587.99  5605.69

 Zero-point correction=                           0.118033 (Hartree/Particle)
 Thermal correction to Energy=                    0.126473
 Thermal correction to Enthalpy=                  0.127417
 Thermal correction to Gibbs Free Energy=         0.083733
 Sum of electronic and zero-point Energies=           -473.875276
 Sum of electronic and thermal Energies=              -473.866837
 Sum of electronic and thermal Enthalpies=            -473.865892
 Sum of electronic and thermal Free Energies=         -473.909576

                     E (Thermal)             CV                S
                      KCal/Mol        Cal/Mol-Kelvin    Cal/Mol-Kelvin
 Total                   79.363             28.449             91.941
 Electronic               0.000              0.000              0.000
 Translational            0.889              2.981             40.287
 Rotational               0.889              2.981             28.550
 Vibrational             77.585             22.488             23.103
 Vibration     1          0.595              1.979              4.921
 Vibration     2          0.600              1.964              3.930
 Vibration     3          0.606              1.943              3.315
 Vibration     4          0.618              1.904              2.693
 Vibration     5          0.653              1.791              1.859
 Vibration     6          0.682              1.705              1.515
 Vibration     7          0.708              1.629              1.294
 Vibration     8          0.762              1.482              0.982
 Vibration     9          0.846              1.273              0.684

 Optimization completed.
    -- Stationary point found.
 Normal termination of Gaussian 16 at Thu Jun 29 13:17:55 2023.
