 Gaussian 16, Revision C.01,
 Gaussian 16:  ES64L-G16RevC.01  3-Jul-2019

 ----------------------------------------------------------------------
 # opt=calcfc freq 6-311+g(d,p) scrf=(cpcm,solvent=water) m062x int(gri
 d=ultrafine)
 ----------------------------------------------------------------------

 --------------------
 ZINC000306420048.mol
 --------------------
 Symbolic Z-matrix:
 Charge =  0 Multiplicity = 1

 SCF Done:  E(RM062X) =  -606.657961225     A.U. after   15 cycles
 SCF Done:  E(RM062X) =  -606.685973942     A.U. after   13 cycles
 SCF Done:  E(RM062X) =  -606.702132040     A.U. after   15 cycles
 SCF Done:  E(RM062X) =  -606.705260033     A.U. after   13 cycles
 SCF Done:  E(RM062X) =  -606.706484811     A.U. after   12 cycles
 SCF Done:  E(RM062X) =  -606.707178959     A.U. after   12 cycles
 SCF Done:  E(RM062X) =  -606.707267175     A.U. after   11 cycles
 SCF Done:  E(RM062X) =  -606.707246632     A.U. after    9 cycles
 SCF Done:  E(RM062X) =  -606.707455135     A.U. after   11 cycles
 SCF Done:  E(RM062X) =  -606.707494311     A.U. after   11 cycles
 SCF Done:  E(RM062X) =  -606.707523778     A.U. after   11 cycles
 SCF Done:  E(RM062X) =  -606.707528674     A.U. after   10 cycles
 SCF Done:  E(RM062X) =  -606.707529575     A.U. after    9 cycles
 SCF Done:  E(RM062X) =  -606.707529812     A.U. after    8 cycles
 SCF Done:  E(RM062X) =  -606.707530099     A.U. after    8 cycles
 SCF Done:  E(RM062X) =  -606.707530319     A.U. after    8 cycles
 SCF Done:  E(RM062X) =  -606.707530447     A.U. after    8 cycles
 Optimization completed.
    -- Stationary point found.
 Normal termination of Gaussian 16 at Wed Jul  5 14:00:55 2023.

 ----------------------------------------------------------------------
 #N Geom=AllCheck Guess=TCheck SCRF=Check GenChk RM062X/6-311+G(d,p) Fr
 eq
 ----------------------------------------------------------------------

 Structure from the checkpoint file:  "ZINC000306420048.chk"
 --------------------
 ZINC000306420048.mol
 --------------------
 Charge =  0 Multiplicity = 1

                         Standard orientation:
 ---------------------------------------------------------------------
 Center     Atomic      Atomic             Coordinates (Angstroms)
 Number     Number       Type             X           Y           Z
 ---------------------------------------------------------------------
      1          6           0        3.690076   -1.451634    0.000624
      2          7           0        2.320208   -0.967085   -0.000458
      3          6           0        2.051671    0.348009   -0.000287
      4          8           0        2.912268    1.221152   -0.000473
      5          6           0        0.615917    0.714968   -0.000079
      6          6           0        0.010918    1.933294    0.000193
      7          6           0       -1.392033    1.677430    0.000291
      8          6           0       -1.527955    0.324139    0.000057
      9          6           0       -2.739406   -0.527293    0.000003
     10          7           0       -2.514955   -1.854270   -0.000379
     11          8           0       -3.850176   -0.016188    0.000232
     12          8           0       -0.310678   -0.274521   -0.000158
     13          1           0        3.671691   -2.538426    0.000069
     14          1           0        4.220603   -1.099414   -0.885292
     15          1           0        4.219312   -1.100186    0.887656
     16          1           0        1.556574   -1.626394    0.001499
     17          1           0        0.512940    2.886792    0.000320
     18          1           0       -2.198777    2.391922    0.000495
     19          1           0       -3.302687   -2.484134   -0.000129
     20          1           0       -1.582860   -2.237700   -0.000386
 ---------------------------------------------------------------------

 SCF Done:  E(RM062X) =  -606.707530447     A.U. after    1 cycles

 The electronic state is 1-A.
 Alpha  occ. eigenvalues --  -19.72672 -19.61111 -19.60816 -14.78751 -14.78210
 Alpha  occ. eigenvalues --  -10.67547 -10.66838 -10.62537 -10.62492 -10.57343
 Alpha  occ. eigenvalues --  -10.56852 -10.56731  -1.28103  -1.18377  -1.18047
 Alpha  occ. eigenvalues --   -1.04932  -1.03473  -0.93397  -0.90039  -0.81910
 Alpha  occ. eigenvalues --   -0.75386  -0.71590  -0.68637  -0.66971  -0.66292
 Alpha  occ. eigenvalues --   -0.62839  -0.59230  -0.58545  -0.55508  -0.53969
 Alpha  occ. eigenvalues --   -0.53085  -0.51188  -0.50761  -0.49644  -0.49417
 Alpha  occ. eigenvalues --   -0.47875  -0.46763  -0.46498  -0.37294  -0.36961
 Alpha  occ. eigenvalues --   -0.35741  -0.35528  -0.33696  -0.30938
 Alpha virt. eigenvalues --   -0.03598   0.00531   0.02219   0.02259   0.02552
 Alpha virt. eigenvalues --    0.03830   0.04162   0.04308   0.05357   0.05841
 Alpha virt. eigenvalues --    0.06338   0.07250   0.07482   0.07932   0.09467

 Mulliken charges:
               1
     1  C   -0.309387
     2  N   -0.310701
     3  C   -0.194966
     4  O   -0.470654
     5  C    0.433684
     6  C   -0.169508
     7  C   -0.210143
     8  C    0.126271
     9  C    0.101552
    10  N   -0.498378
    11  O   -0.472559
    12  O    0.021817
    13  H    0.182225
    14  H    0.186535
    15  H    0.186559
    16  H    0.338566
    17  H    0.200499
    18  H    0.201422
    19  H    0.348417
    20  H    0.308749
 Sum of Mulliken charges =  -0.00000

 Dipole moment (field-independent basis, Debye):
    X=              1.5673    Y=             -6.3677    Z=              0.0057  Tot=              6.5577
 Quadrupole moment (field-independent basis, Debye-Ang):
   XX=            -93.0255   YY=            -53.6510   ZZ=            -71.9811
   XY=             -6.7525   XZ=              0.0118   YZ=             -0.0055

  Exact polarizability:     178.267      -1.289     155.504      -0.003       0.007      80.406
 Approx polarizability:     150.415      -0.633     146.704      -0.006       0.010      78.593

                      1                      2                      3
                      A                      A                      A
 Frequencies --     43.8331                69.8119                95.7069
 Red. masses --      4.7944                 5.6701                 1.3727
 Frc consts  --      0.0054                 0.0163                 0.0074
 IR Inten    --      0.3576                34.7329                11.5469

                      4                      5                      6
                      A                      A                      A
 Frequencies --     97.9056               106.0245               161.9873
 Red. masses --      4.5850                 2.2347                 4.6478
 Frc consts  --      0.0259                 0.0148                 0.0719
 IR Inten    --      3.9594                 1.3191                 0.0813

                      7                      8                      9
                      A                      A                      A
 Frequencies --    203.0819               251.4692               275.6334
 Red. masses --      4.5192                 5.4573                 1.2504
 Frc consts  --      0.1098                 0.2033                 0.0560
 IR Inten    --     27.6642                14.6587               335.4816

                     10                     11                     12
                      A                      A                      A
 Frequencies --    296.6565               343.5352               435.7348
 Red. masses --      4.3684                 9.6380                 4.3498
 Frc consts  --      0.2265                 0.6702                 0.4866
 IR Inten    --     25.4524                 2.9008                 3.9763

                     13                     14                     15
                      A                      A                      A
 Frequencies --    449.8479               455.7523               537.7367
 Red. masses --      1.1773                 4.6989                 1.2814
 Frc consts  --      0.1404                 0.5750                 0.2183
 IR Inten    --    150.5550                 2.4354                 1.4044

                     16                     17                     18
                      A                      A                      A
 Frequencies --    579.5185               608.0974               649.2400
 Red. masses --      7.5851                 3.2921                 4.3050
 Frc consts  --      1.5009                 0.7172                 1.0691
 IR Inten    --      8.4206                 0.3459                 6.5699

                     19                     20                     21
                      A                      A                      A
 Frequencies --    679.5179               773.2754               778.6877
 Red. masses --      3.3108                 6.5399                 3.7948
 Frc consts  --      0.9007                 2.3040                 1.3557
 IR Inten    --     45.6830                 1.0262                64.0844

                     22                     23                     24
                      A                      A                      A
 Frequencies --    820.9411               854.2306               924.7547
 Red. masses --      4.1537                 1.5080                 1.4113
 Frc consts  --      1.6493                 0.6483                 0.7111
 IR Inten    --     31.5518                45.1655                 0.0467

                     25                     26                     27
                      A                      A                      A
 Frequencies --    970.7600               984.6832              1027.3894
 Red. masses --      4.4107                 3.8364                 1.4024
 Frc consts  --      2.4489                 2.1916                 0.8721
 IR Inten    --     17.6250                29.7746                87.9790

                     28                     29                     30
                      A                      A                      A
 Frequencies --   1065.7872              1103.1141              1153.1199
 Red. masses --      3.4846                 1.8139                 1.2907
 Frc consts  --      2.3321                 1.3005                 1.0112
 IR Inten    --      0.5035                 0.2262                 0.0463

                     31                     32                     33
                      A                      A                      A
 Frequencies --   1181.9802              1190.8837              1224.4854
 Red. masses --      1.8276                 1.7989                 3.9940
 Frc consts  --      1.5044                 1.5031                 3.5283
 IR Inten    --      7.5003                 0.1594                 2.5912

                     34                     35                     36
                      A                      A                      A
 Frequencies --   1275.0725              1318.8173              1389.9031
 Red. masses --      3.5660                 2.5922                 4.0248
 Frc consts  --      3.4158                 2.6564                 4.5811
 IR Inten    --     57.0987               195.0697               351.1104

                     37                     38                     39
                      A                      A                      A
 Frequencies --   1411.4365              1455.2124              1479.2078
 Red. masses --      5.1871                 1.1983                 1.0376
 Frc consts  --      6.0883                 1.4950                 1.3377
 IR Inten    --    172.0795                28.2939                17.2072

                     40                     41                     42
                      A                      A                      A
 Frequencies --   1504.6179              1553.1128              1601.6060
 Red. masses --      1.0946                 2.4729                 1.7387
 Frc consts  --      1.4600                 3.5145                 2.6277
 IR Inten    --     20.4519               347.0144                80.3773

                     43                     44                     45
                      A                      A                      A
 Frequencies --   1632.3129              1671.8892              1728.8373
 Red. masses --      2.6911                 6.8200                 9.8723
 Frc consts  --      4.2246                11.2319                17.3851
 IR Inten    --    487.2938               262.7361               712.5693

                     46                     47                     48
                      A                      A                      A
 Frequencies --   1745.3969              3076.0615              3139.4366
 Red. masses --      9.6770                 1.0346                 1.1054
 Frc consts  --     17.3692                 5.7678                 6.4190
 IR Inten    --    813.0991                36.5889                21.4377

                     49                     50                     51
                      A                      A                      A
 Frequencies --   3187.3765              3291.6736              3301.8191
 Red. masses --      1.1034                 1.0959                 1.1037
 Frc consts  --      6.6047                 6.9958                 7.0892
 IR Inten    --     10.6239                 0.2733                 6.8285

                     52                     53                     54
                      A                      A                      A
 Frequencies --   3611.0600              3659.8038              3741.4010
 Red. masses --      1.0458                 1.0794                 1.1071
 Frc consts  --      8.0345                 8.5180                 9.1304
 IR Inten    --    147.6487               132.0711               144.8320

 - Thermochemistry -
 -------------------
 Temperature   298.150 Kelvin.  Pressure   1.00000 Atm.
 Atom     1 has atomic number  6 and mass  12.00000

 Molecular mass:   168.05349 amu.
 Principal axes and moments of inertia in atomic units:
                           1         2         3
     Eigenvalues --   859.079743464.499504312.26614
           X            0.99983  -0.01822   0.00001
           Y            0.01822   0.99983  -0.00001
           Z           -0.00001   0.00001   1.00000
 This molecule is an asymmetric top.
 Rotational symmetry number  1.
 Warning -- assumption of classical behavior for rotation
           may cause significant error
 Rotational temperatures (Kelvin)      0.10082     0.02500     0.02009
 Rotational constants (GHZ):           2.10078     0.52092     0.41851
 Zero-point vibrational energy     401773.2 (Joules/Mol)
                                   96.02611 (Kcal/Mol)
 Warning -- explicit consideration of  17 degrees of freedom as
           vibrations may cause significant error
 Vibrational temperatures:     63.07   100.44   137.70   140.86   152.55
          (Kelvin)            233.06   292.19   361.81   396.57   426.82
                              494.27   626.93   647.23   655.73   773.68
                              833.80   874.92   934.11   977.67  1112.57
                             1120.36  1181.15  1229.05  1330.52  1396.71
                             1416.74  1478.18  1533.43  1587.14  1659.08
                             1700.61  1713.42  1761.76  1834.54  1897.48
                             1999.76  2030.74  2093.73  2128.25  2164.81
                             2234.58  2304.35  2348.53  2405.48  2487.41
                             2511.24  4425.77  4516.95  4585.92  4735.98
                             4750.58  5195.51  5265.64  5383.04

 Zero-point correction=                           0.153027 (Hartree/Particle)
 Thermal correction to Energy=                    0.164858
 Thermal correction to Enthalpy=                  0.165802
 Thermal correction to Gibbs Free Energy=         0.114171
 Sum of electronic and zero-point Energies=           -606.554503
 Sum of electronic and thermal Energies=              -606.542673
 Sum of electronic and thermal Enthalpies=            -606.541728
 Sum of electronic and thermal Free Energies=         -606.593359

                     E (Thermal)             CV                S
                      KCal/Mol        Cal/Mol-Kelvin    Cal/Mol-Kelvin
 Total                  103.450             42.032            108.667
 Electronic               0.000              0.000              0.000
 Translational            0.889              2.981             41.265
 Rotational               0.889              2.981             30.929
 Vibrational            101.672             36.071             36.472
 Vibration     1          0.595              1.980              5.078
 Vibration     2          0.598              1.969              4.159
 Vibration     3          0.603              1.952              3.540
 Vibration     4          0.603              1.951              3.496
 Vibration     5          0.605              1.944              3.340
 Vibration     6          0.622              1.889              2.526
 Vibration     7          0.639              1.836              2.105
 Vibration     8          0.663              1.760              1.720
 Vibration     9          0.677              1.718              1.561
 Vibration    10          0.690              1.680              1.436
 Vibration    11          0.722              1.588              1.196
 Vibration    12          0.796              1.392              0.840
 Vibration    13          0.809              1.361              0.796
 Vibration    14          0.814              1.348              0.779
 Vibration    15          0.893              1.167              0.570
 Vibration    16          0.936              1.076              0.486
 Vibration    17          0.967              1.015              0.436

                           ! Non-Optimized Parameters !
 Normal termination of Gaussian 16 at Wed Jul  5 14:13:06 2023.
