 Gaussian 16, Revision C.01,
 Gaussian 16:  ES64L-G16RevC.01  3-Jul-2019

 ----------------------------------------------------------------------
 # opt=calcfc freq 6-311+g(d,p) scrf=(cpcm,solvent=water) m062x int(gri
 d=ultrafine)
 ----------------------------------------------------------------------

 --------------------
 ZINC000001529208.mol
 --------------------
 Symbolic Z-matrix:
 Charge =  0 Multiplicity = 1

 SCF Done:  E(RM062X) =  -465.739576601     A.U. after   16 cycles
 SCF Done:  E(RM062X) =  -465.779777801     A.U. after   15 cycles
 SCF Done:  E(RM062X) =  -465.788546113     A.U. after   14 cycles
 SCF Done:  E(RM062X) =  -465.788277579     A.U. after   15 cycles
 SCF Done:  E(RM062X) =  -465.791017060     A.U. after   14 cycles
 SCF Done:  E(RM062X) =  -465.791471363     A.U. after   13 cycles
 SCF Done:  E(RM062X) =  -465.795598870     A.U. after   16 cycles
 SCF Done:  E(RM062X) =  -465.797594599     A.U. after   16 cycles
 SCF Done:  E(RM062X) =  -465.796884514     A.U. after   15 cycles
 SCF Done:  E(RM062X) =  -465.700974136     A.U. after   15 cycles
 SCF Done:  E(RM062X) =  -465.800278223     A.U. after   12 cycles
 SCF Done:  E(RM062X) =  -465.800304700     A.U. after   11 cycles
 SCF Done:  E(RM062X) =  -465.800338866     A.U. after   12 cycles
 SCF Done:  E(RM062X) =  -465.800356847     A.U. after   11 cycles
 SCF Done:  E(RM062X) =  -465.800370034     A.U. after   11 cycles
 SCF Done:  E(RM062X) =  -465.800374036     A.U. after   10 cycles
 SCF Done:  E(RM062X) =  -465.800380483     A.U. after   11 cycles
 SCF Done:  E(RM062X) =  -465.800382074     A.U. after   10 cycles
 SCF Done:  E(RM062X) =  -465.800382335     A.U. after   10 cycles
 Optimization completed.
    -- Stationary point found.
 Normal termination of Gaussian 16 at Thu Jun 29 14:06:25 2023.

 ----------------------------------------------------------------------
 #N Geom=AllCheck Guess=TCheck SCRF=Check GenChk RM062X/6-311+G(d,p) Fr
 eq
 ----------------------------------------------------------------------

 Structure from the checkpoint file:  "ZINC000001529208.chk"
 --------------------
 ZINC000001529208.mol
 --------------------
 Charge =  0 Multiplicity = 1

                         Standard orientation:
 ---------------------------------------------------------------------
 Center     Atomic      Atomic             Coordinates (Angstroms)
 Number     Number       Type             X           Y           Z
 ---------------------------------------------------------------------
      1          6           0       -3.276733   -0.739702    0.316450
      2          6           0       -2.478059    0.517930    0.098249
      3          6           0       -1.385749    0.586687   -0.669051
      4          6           0       -0.767530   -0.565327   -1.425232
      5          6           0        0.074467   -1.491033   -0.539793
      6          6           0        1.325395   -0.920100    0.077964
      7          6           0        1.914167   -1.808681    1.138055
      8          6           0        1.840019    0.261627   -0.310667
      9          6           0        3.050505    0.869256    0.232594
     10          8           0        3.482660    1.940517   -0.151977
     11          1           0       -3.230094   -1.035740    1.369534
     12          1           0       -2.930771   -1.578517   -0.286472
     13          1           0       -4.331599   -0.560816    0.086892
     14          1           0       -0.883966    1.548622   -0.742640
     15          1           0       -0.157895   -0.185023   -2.248669
     16          1           0       -1.547783   -1.173927   -1.888465
     17          1           0        0.380891   -2.376088   -1.112251
     18          1           0       -0.549648   -1.875737    0.275904
     19          1           0        2.914268   -1.528827    1.456829
     20          1           0        1.256299   -1.803962    2.012174
     21          1           0        1.943197   -2.837954    0.771524
     22          1           0        1.352901    0.848920   -1.081618
     23          1           0        3.585171    0.328305    1.028621
     24          6           0       -3.000269    1.725243    0.830769
     25          1           0       -3.033881    1.535752    1.908318
     26          1           0       -2.380878    2.605054    0.652091
     27          1           0       -4.024774    1.950403    0.518013
 ---------------------------------------------------------------------

 SCF Done:  E(RM062X) =  -465.800382335     A.U. after    1 cycles

 The electronic state is 1-A.
 Alpha  occ. eigenvalues --  -19.62535 -10.63184 -10.58279 -10.54741 -10.54536
 Alpha  occ. eigenvalues --  -10.54247 -10.54061 -10.53941 -10.52907 -10.52824
 Alpha  occ. eigenvalues --  -10.52656  -1.17387  -0.94703  -0.91540  -0.85746
 Alpha  occ. eigenvalues --   -0.81710  -0.78400  -0.77751  -0.71698  -0.68478
 Alpha  occ. eigenvalues --   -0.62429  -0.59191  -0.55782  -0.54757  -0.53850
 Alpha  occ. eigenvalues --   -0.52322  -0.50458  -0.50046  -0.49443  -0.47402
 Alpha  occ. eigenvalues --   -0.47138  -0.46243  -0.45020  -0.44781  -0.43467
 Alpha  occ. eigenvalues --   -0.42341  -0.41516  -0.40324  -0.38307  -0.33629
 Alpha  occ. eigenvalues --   -0.32356  -0.29329
 Alpha virt. eigenvalues --   -0.02773   0.01012   0.02139   0.02417   0.02847
 Alpha virt. eigenvalues --    0.03576   0.04302   0.04666   0.04887   0.05404
 Alpha virt. eigenvalues --    0.05889   0.06299   0.06790   0.07150   0.07589

 Mulliken charges:
               1
     1  C   -0.770432
     2  C    0.443603
     3  C   -0.166942
     4  C   -0.145778
     5  C   -0.866843
     6  C    1.008143
     7  C   -0.674687
     8  C   -0.515272
     9  C   -0.139795
    10  O   -0.388705
    11  H    0.196629
    12  H    0.165431
    13  H    0.181870
    14  H    0.148910
    15  H    0.193630
    16  H    0.194709
    17  H    0.223971
    18  H    0.193929
    19  H    0.174797
    20  H    0.214527
    21  H    0.194316
    22  H    0.171368
    23  H    0.153296
    24  C   -0.720675
    25  H    0.178814
    26  H    0.170697
    27  H    0.180491
 Sum of Mulliken charges =  -0.00000

 Dipole moment (field-independent basis, Debye):
    X=             -3.3931    Y=             -5.3747    Z=              1.4511  Tot=              6.5197
 Quadrupole moment (field-independent basis, Debye-Ang):
   XX=            -78.7975   YY=            -73.2609   ZZ=            -67.6203
   XY=            -13.6979   XZ=              2.9631   YZ=              0.7160

  Exact polarizability:     176.076      24.468     176.328     -12.027      -8.973     138.429
 Approx polarizability:     149.804      21.678     157.946     -12.110      -9.525     128.615

                      1                      2                      3
                      A                      A                      A
 Frequencies --     33.5823                45.3528                65.1960
 Red. masses --      3.5132                 3.0707                 3.1352
 Frc consts  --      0.0023                 0.0037                 0.0079
 IR Inten    --      0.6837                 3.4067                 0.8925

                      4                      5                      6
                      A                      A                      A
 Frequencies --    110.3538               133.3623               144.2317
 Red. masses --      1.4343                 1.6553                 2.3250
 Frc consts  --      0.0103                 0.0173                 0.0285
 IR Inten    --      1.4433                 3.7529                 7.1527

                      7                      8                      9
                      A                      A                      A
 Frequencies --    154.3234               161.4235               205.0915
 Red. masses --      1.2647                 2.6358                 1.3528
 Frc consts  --      0.0177                 0.0405                 0.0335
 IR Inten    --      1.1915                 2.7281                 3.2925

                     10                     11                     12
                      A                      A                      A
 Frequencies --    224.1711               275.2460               336.1111
 Red. masses --      1.9220                 3.4258                 2.7000
 Frc consts  --      0.0569                 0.1529                 0.1797
 IR Inten    --      5.1649                 8.8254                 1.3324

                     13                     14                     15
                      A                      A                      A
 Frequencies --    348.3866               392.6429               433.0026
 Red. masses --      2.4395                 2.2149                 2.6402
 Frc consts  --      0.1745                 0.2012                 0.2917
 IR Inten    --      0.3667                 2.0654                 7.6947

                     16                     17                     18
                      A                      A                      A
 Frequencies --    464.2630               473.1624               518.8006
 Red. masses --      2.2332                 2.5129                 2.3981
 Frc consts  --      0.2836                 0.3315                 0.3803
 IR Inten    --     11.9379                16.5889                 9.3338

                     19                     20                     21
                      A                      A                      A
 Frequencies --    534.2241               589.4681               768.8815
 Red. masses --      4.5399                 2.4756                 2.1942
 Frc consts  --      0.7634                 0.5068                 0.7643
 IR Inten    --     10.3547                 0.2379                 1.9266

                     22                     23                     24
                      A                      A                      A
 Frequencies --    826.5462               830.3493               866.1937
 Red. masses --      1.5527                 2.4491                 1.4432
 Frc consts  --      0.6250                 0.9949                 0.6380
 IR Inten    --     12.7716                17.4295                26.9217

                     25                     26                     27
                      A                      A                      A
 Frequencies --    920.0191               965.3273               968.1743
 Red. masses --      1.6964                 1.4128                 2.2534
 Frc consts  --      0.8460                 0.7757                 1.2445
 IR Inten    --     33.1646                 3.0387                14.8214

                     28                     29                     30
                      A                      A                      A
 Frequencies --    989.4979              1008.4259              1011.1574
 Red. masses --      1.5053                 1.3205                 1.5528
 Frc consts  --      0.8683                 0.7912                 0.9354
 IR Inten    --     13.6996                 7.3635                 6.9986

                     31                     32                     33
                      A                      A                      A
 Frequencies --   1033.7024              1053.0498              1083.6988
 Red. masses --      1.7700                 1.5930                 1.9040
 Frc consts  --      1.1143                 1.0408                 1.3175
 IR Inten    --      0.5301                 5.8039                 0.1994

                     34                     35                     36
                      A                      A                      A
 Frequencies --   1101.0636              1135.4036              1155.9155
 Red. masses --      1.6992                 1.9860                 2.6109
 Frc consts  --      1.2137                 1.5085                 2.0554
 IR Inten    --      1.0745                19.3416                72.7194

                     37                     38                     39
                      A                      A                      A
 Frequencies --   1194.0190              1212.1010              1257.2446
 Red. masses --      1.6149                 2.0039                 1.4225
 Frc consts  --      1.3565                 1.7346                 1.3248
 IR Inten    --     20.7958               109.0159                 0.6051

                     40                     41                     42
                      A                      A                      A
 Frequencies --   1264.5542              1323.8306              1355.4135
 Red. masses --      1.5072                 1.3263                 1.3333
 Frc consts  --      1.4200                 1.3695                 1.4431
 IR Inten    --      9.2201                 3.3028                 5.8539

                     43                     44                     45
                      A                      A                      A
 Frequencies --   1378.5194              1399.8634              1408.9577
 Red. masses --      1.3282                 1.3039                 1.3097
 Frc consts  --      1.4871                 1.5054                 1.5318
 IR Inten    --      1.8935                 6.6270                 7.0420

                     46                     47                     48
                      A                      A                      A
 Frequencies --   1416.6973              1419.5480              1441.4258
 Red. masses --      1.4891                 1.5861                 1.2401
 Frc consts  --      1.7609                 1.8831                 1.5180
 IR Inten    --     20.2557                14.4948                42.2932

                     49                     50                     51
                      A                      A                      A
 Frequencies --   1451.9863              1466.7550              1470.1061
 Red. masses --      1.1751                 1.0466                 1.0547
 Frc consts  --      1.4597                 1.3266                 1.3429
 IR Inten    --     15.6034                 1.5454                27.2369

                     52                     53                     54
                      A                      A                      A
 Frequencies --   1476.4987              1485.4117              1488.8922
 Red. masses --      1.0587                 1.0512                 1.0721
 Frc consts  --      1.3598                 1.3666                 1.4003
 IR Inten    --     12.7682                26.2735                14.1184

                     55                     56                     57
                      A                      A                      A
 Frequencies --   1491.2651              1511.9102              1709.1979
 Red. masses --      1.0967                 1.0805                 5.9619
 Frc consts  --      1.4370                 1.4553                10.2618
 IR Inten    --     42.0718                15.5393               328.3773

                     58                     59                     60
                      A                      A                      A
 Frequencies --   1755.1776              1759.7053              3029.5997
 Red. masses --      7.0223                 9.5362                 1.0844
 Frc consts  --     12.7459                17.3983                 5.8641
 IR Inten    --     39.5813               765.0628                67.7626

                     61                     62                     63
                      A                      A                      A
 Frequencies --   3037.3560              3045.3066              3050.7951
 Red. masses --      1.0615                 1.0372                 1.0397
 Frc consts  --      5.7696                 5.6675                 5.7013
 IR Inten    --     30.1287                31.4385                45.1949

                     64                     65                     66
                      A                      A                      A
 Frequencies --   3066.0448              3068.1531              3080.5019
 Red. masses --      1.0453                 1.0860                 1.0711
 Frc consts  --      5.7899                 6.0236                 5.9887
 IR Inten    --     17.0918                 4.6343                47.8546

                     67                     68                     69
                      A                      A                      A
 Frequencies --   3099.8855              3102.2387              3112.7062
 Red. masses --      1.1002                 1.0995                 1.1026
 Frc consts  --      6.2291                 6.2341                 6.2941
 IR Inten    --     12.4334                34.2070                24.6559

                     70                     71                     72
                      A                      A                      A
 Frequencies --   3120.6088              3142.3805              3157.2829
 Red. masses --      1.0987                 1.1017                 1.0984
 Frc consts  --      6.3042                 6.4095                 6.4511
 IR Inten    --     10.2231                25.1898                22.8693

                     73                     74                     75
                      A                      A                      A
 Frequencies --   3163.5139              3191.1876              3207.3316
 Red. masses --      1.0897                 1.0978                 1.0895
 Frc consts  --      6.4252                 6.5866                 6.6031
 IR Inten    --     30.9075                19.6074                 4.2887

 - Thermochemistry -
 -------------------
 Temperature   298.150 Kelvin.  Pressure   1.00000 Atm.
 Atom     1 has atomic number  6 and mass  12.00000

 Molecular mass:   152.12012 amu.
 Principal axes and moments of inertia in atomic units:
                           1         2         3
     Eigenvalues --  1179.016103357.064523917.78965
           X            0.99961  -0.02786   0.00041
           Y            0.02786   0.99961  -0.00322
           Z           -0.00032   0.00323   0.99999
 This molecule is an asymmetric top.
 Rotational symmetry number  1.
 Warning -- assumption of classical behavior for rotation
           may cause significant error
 Rotational temperatures (Kelvin)      0.07346     0.02580     0.02211
 Rotational constants (GHZ):           1.53072     0.53760     0.46065
 Zero-point vibrational energy     623097.5 (Joules/Mol)
                                  148.92389 (Kcal/Mol)
 Warning -- explicit consideration of  20 degrees of freedom as
           vibrations may cause significant error
 Vibrational temperatures:     48.32    65.25    93.80   158.77   191.88
          (Kelvin)            207.52   222.04   232.25   295.08   322.53
                              396.02   483.59   501.25   564.93   622.99
                              667.97   680.78   746.44   768.63   848.11
                             1106.25  1189.22  1194.69  1246.26  1323.70
                             1388.89  1392.99  1423.67  1450.90  1454.83
                             1487.27  1515.10  1559.20  1584.18  1633.59
                             1663.10  1717.93  1743.94  1808.89  1819.41
                             1904.70  1950.14  1983.38  2014.09  2027.18
                             2038.31  2042.41  2073.89  2089.08  2110.33
                             2115.15  2124.35  2137.18  2142.18  2145.60
                             2175.30  2459.15  2525.31  2531.82  4358.92
                             4370.08  4381.52  4389.41  4411.35  4414.39
                             4432.16  4460.04  4463.43  4478.49  4489.86
                             4521.18  4542.63  4551.59  4591.41  4614.63

 Zero-point correction=                           0.237325 (Hartree/Particle)
 Thermal correction to Energy=                    0.250772
 Thermal correction to Enthalpy=                  0.251716
 Thermal correction to Gibbs Free Energy=         0.196506
 Sum of electronic and zero-point Energies=           -465.563057
 Sum of electronic and thermal Energies=              -465.549611
 Sum of electronic and thermal Enthalpies=            -465.548667
 Sum of electronic and thermal Free Energies=         -465.603876

                     E (Thermal)             CV                S
                      KCal/Mol        Cal/Mol-Kelvin    Cal/Mol-Kelvin
 Total                  157.362             47.916            116.198
 Electronic               0.000              0.000              0.000
 Translational            0.889              2.981             40.968
 Rotational               0.889              2.981             31.117
 Vibrational            155.584             41.955             44.112
 Vibration     1          0.594              1.983              5.606
 Vibration     2          0.595              1.979              5.010
 Vibration     3          0.597              1.971              4.293
 Vibration     4          0.606              1.941              3.263
 Vibration     5          0.613              1.920              2.897
 Vibration     6          0.616              1.909              2.747
 Vibration     7          0.620              1.898              2.618
 Vibration     8          0.622              1.890              2.533
 Vibration     9          0.640              1.833              2.087
 Vibration    10          0.649              1.804              1.925
 Vibration    11          0.677              1.719              1.563
 Vibration    12          0.717              1.603              1.231
 Vibration    13          0.726              1.579              1.173
 Vibration    14          0.760              1.486              0.990
 Vibration    15          0.794              1.398              0.849
 Vibration    16          0.822              1.329              0.754
 Vibration    17          0.830              1.310              0.729
 Vibration    18          0.874              1.208              0.613
 Vibration    19          0.889              1.174              0.578
 Vibration    20          0.947              1.054              0.468

                           ! Non-Optimized Parameters !
 Normal termination of Gaussian 16 at Thu Jun 29 14:25:19 2023.
